TITLE = "Example: 2D CST Element Data"
VARIABLES = "X", "Y", "Ux", "Uy", "Fx", "Fy"
ZONE NODES=121, ELEMENTS=200, DATAPACKING=POINT, ZONETYPE=FETRIANGLE
0	0	0	0	-13.4911	-4.95906
10	0	0.000115845	7.11804e-005	-3.55271e-015	1.77636e-015
20	0	0.000213471	0.00011004	-3.55271e-015	-7.10543e-015
30	0	0.000307167	0.000139991	1.42109e-014	3.55271e-015
40	0	0.000400659	0.000167191	-2.13163e-014	7.10543e-015
50	0	0.000495111	0.00019475	2.66454e-014	7.10543e-015
60	0	0.000590785	0.000224571	-6.03961e-014	3.55271e-014
70	0	0.000687581	0.000257908	0	0
80	0	0.000785211	0.000295607	1.77636e-014	-2.13163e-014
90	0	0.000883199	0.000338175	0	5.68434e-014
100	0	0.000980741	0.000385524	9.75	-7.10543e-015
0	10	0	0	-18.7829	-2.44579
10	10	8.89516e-005	4.19e-005	7.99361e-015	-3.55271e-015
20	10	0.000184988	7.98174e-005	-2.84217e-014	0
30	10	0.000279124	0.000109714	-3.37508e-014	-3.55271e-015
40	10	0.000372171	0.000136682	3.73035e-014	-1.42109e-014
50	10	0.000464935	0.000163916	8.88178e-014	-2.84217e-014
60	10	0.000557855	0.000193397	3.19744e-014	-4.26326e-014
70	10	0.000651126	0.000226407	7.4607e-014	-2.84217e-014
80	10	0.000744817	0.000263796	-2.0961e-013	4.26326e-014
90	10	0.000838952	0.000306087	9.9476e-014	-1.42109e-014
100	10	0.00093356	0.000353391	19	-5.68434e-014
0	20	0	0	-17.0204	-1.51365
10	20	7.95101e-005	2.60673e-005	-1.95399e-014	1.77636e-015
20	20	0.000166008	5.43742e-005	-2.66454e-014	3.55271e-015
30	20	0.000255442	8.13525e-005	-7.63833e-014	-3.19744e-014
40	20	0.000345237	0.00010726	6.66134e-014	1.77636e-014
50	20	0.000434908	0.000134008	-1.42109e-014	4.26326e-014
60	20	0.000524466	0.000163193	-2.02505e-013	1.42109e-014
70	20	0.000614015	0.000195951	-1.75859e-013	2.13163e-014
80	20	0.000703676	0.000233067	2.27374e-013	-1.42109e-014
90	20	0.000793557	0.000275084	-2.13163e-013	7.10543e-014
100	20	0.000883708	0.000322397	18	-4.9738e-014
0	30	0	0	-15.8539	-0.764188
10	30	7.35297e-005	1.50119e-005	-7.32747e-015	-3.55271e-015
20	30	0.000152845	3.46472e-005	-1.5099e-014	7.10543e-015
30	30	0.000235964	5.6548e-005	-2.75335e-014	1.06581e-014
40	30	0.000320843	8.00516e-005	-6.39488e-014	0
50	30	0.00040626	0.000105672	1.68754e-014	-7.10543e-015
60	30	0.000491728	0.000134297	-1.06581e-013	2.13163e-014
70	30	0.00057711	0.000166716	-1.91847e-013	4.26326e-014
80	30	0.000662427	0.000203545	-1.49214e-013	-2.13163e-014
90	30	0.000747768	0.000245281	-1.88294e-013	-7.10543e-015
100	30	0.000833226	0.000292454	17	2.84217e-014
0	40	0	0	-14.8547	-0.148075
10	40	6.86451e-005	6.31259e-006	-7.43849e-015	-7.10543e-015
20	40	0.000142197	1.84985e-005	-5.30687e-014	7.10543e-015
30	40	0.000219454	3.50976e-005	2.62013e-014	7.10543e-015
40	40	0.000298945	5.53956e-005	2.66454e-015	1.06581e-014
50	40	0.00037947	7.92861e-005	1.58984e-013	0
60	40	0.000460299	0.000107015	-2.30926e-014	-3.55271e-014
70	40	0.000541093	0.000138937	1.42109e-014	1.42109e-014
80	40	0.000621759	0.000175402	1.33227e-013	0
90	40	0.000702349	0.000216767	-3.55271e-014	0
100	40	0.000782996	0.000263499	16	1.77636e-014
0	50	0	0	-13.9217	0.380737
10	50	6.42692e-005	-1.08559e-006	2.22045e-016	-3.55271e-015
20	50	0.000132875	4.52996e-006	-1.10884e-014	-3.55271e-015
30	50	0.000204893	1.60969e-005	-2.35367e-014	0
40	50	0.000279151	3.30158e-005	9.32587e-015	0
50	50	0.000354599	5.48836e-005	-6.03961e-014	-3.55271e-015
60	50	0.000430488	8.14948e-005	-6.21725e-014	-1.42109e-014
70	50	0.000506398	0.000112788	1.7053e-013	-1.42109e-014
80	50	0.000582174	0.0001488	-9.23706e-014	7.10543e-015
90	50	0.000657847	0.000189666	-1.59872e-013	1.42109e-014
100	50	0.000733586	0.000235673	15	2.84217e-014
0	60	0	0	-13.0303	0.854031
10	60	6.02611e-005	-7.82499e-006	2.22045e-015	-1.77636e-015
20	60	0.00012451	-8.22417e-006	1.17684e-014	-8.88178e-015
30	60	0.000191825	-1.31255e-006	-5.04041e-014	0
40	60	0.000261146	1.2394e-005	-1.72085e-014	3.55271e-015
50	60	0.000331552	3.22634e-005	1.5854e-013	-1.06581e-014
60	60	0.000402379	5.77311e-005	-1.04805e-013	2.13163e-014
70	60	0.000473228	8.83649e-005	2.93099e-014	-2.13163e-014
80	60	0.000543942	0.000123876	-4.61853e-014	-7.10543e-015
90	60	0.000614568	0.000164138	1.59872e-014	-7.10543e-015
100	60	0.000685313	0.000209213	14	3.55271e-015
0	70	0	0	-12.189	1.28969
10	70	5.67009e-005	-1.44555e-005	-1.37668e-014	0
20	70	0.000117149	-2.05599e-005	9.76996e-015	-1.77636e-015
30	70	0.000180197	-1.78677e-005	-2.59792e-014	3.55271e-015
40	70	0.000244805	-6.98659e-006	4.32987e-015	-1.06581e-014
50	70	0.000310207	1.11514e-005	8.79297e-014	3.19744e-014
60	70	0.000375899	3.56387e-005	-7.50511e-014	-1.06581e-014
70	70	0.000441579	6.5709e-005	-8.79297e-014	-1.42109e-014
80	70	0.000507124	0.000100755	-7.81597e-014	-2.84217e-014
90	70	0.000572605	0.000140357	-1.26121e-013	1.42109e-014
100	70	0.000638293	0.000184352	13	2.4869e-014
0	80	0	0	-11.4555	1.67174
10	80	5.39832e-005	-2.16516e-005	-1.86517e-014	3.55271e-015
20	80	0.000111278	-3.32438e-005	1.95399e-014	-8.88178e-015
30	80	0.000170312	-3.41686e-005	-8.43769e-015	3.55271e-015
40	80	0.000230171	-2.55134e-005	2.22045e-015	3.55271e-015
50	80	0.000290408	-8.66153e-006	-7.38298e-015	-1.06581e-014
60	80	0.000350799	1.51319e-005	3.90799e-014	-1.42109e-014
70	80	0.000411221	4.4825e-005	-2.75335e-014	2.84217e-014
80	80	0.000471593	7.95392e-005	2.04281e-014	0
90	80	0.000531921	0.000118503	-1.24345e-014	-7.10543e-015
100	80	0.000592532	0.000161249	12	2.84217e-014
0	90	0	0	-11.0667	1.80633
10	90	5.33963e-005	-3.05037e-005	1.77636e-015	-1.77636e-015
20	90	0.000108254	-4.7007e-005	-3.37508e-014	8.88178e-015
30	90	0.000162939	-5.05397e-005	2.93099e-014	-7.10543e-015
40	90	0.000217373	-4.3284e-005	-1.82077e-014	-7.10543e-015
50	90	0.000271824	-2.71884e-005	5.79536e-014	-2.13163e-014
60	90	0.000326521	-3.80145e-006	2.20934e-014	3.55271e-015
70	90	0.000381566	2.56678e-005	-5.15143e-014	-1.06581e-014
80	90	0.000436944	6.01999e-005	-9.76996e-015	-7.10543e-015
90	90	0.000492521	9.87359e-005	-5.32907e-015	1.42109e-014
100	90	0.000548195	0.000139979	11	7.10543e-015
0	100	0	0	-8.33383	3.82823
10	100	5.99245e-005	-4.28008e-005	-1.11022e-014	-3.10862e-015
20	100	0.000111625	-6.20171e-005	3.10862e-015	4.88498e-015
30	100	0.000159428	-6.65588e-005	2.66454e-015	-4.44089e-015
40	100	0.000206283	-5.98325e-005	3.37508e-014	-1.77636e-015
50	100	0.000253578	-4.41126e-005	-9.32587e-015	-3.10862e-015
60	100	0.000301893	-2.10441e-005	-3.63598e-014	-2.72005e-015
70	100	0.000351421	8.13332e-006	3.59712e-014	1.33227e-015
80	100	0.000402194	4.23838e-005	-2.93099e-014	9.76996e-015
90	100	0.00045415	8.06062e-005	-4.44089e-014	-1.24345e-014
100	100	0.000506925	0.000120947	5.25	-1.06581e-014
1	13	12
1	2	13
2	14	13
2	3	14
3	15	14
3	4	15
4	16	15
4	5	16
5	17	16
5	6	17
6	18	17
6	7	18
7	19	18
7	8	19
8	20	19
8	9	20
9	21	20
9	10	21
10	22	21
10	11	22
12	24	23
12	13	24
13	25	24
13	14	25
14	26	25
14	15	26
15	27	26
15	16	27
16	28	27
16	17	28
17	29	28
17	18	29
18	30	29
18	19	30
19	31	30
19	20	31
20	32	31
20	21	32
21	33	32
21	22	33
23	35	34
23	24	35
24	36	35
24	25	36
25	37	36
25	26	37
26	38	37
26	27	38
27	39	38
27	28	39
28	40	39
28	29	40
29	41	40
29	30	41
30	42	41
30	31	42
31	43	42
31	32	43
32	44	43
32	33	44
34	46	45
34	35	46
35	47	46
35	36	47
36	48	47
36	37	48
37	49	48
37	38	49
38	50	49
38	39	50
39	51	50
39	40	51
40	52	51
40	41	52
41	53	52
41	42	53
42	54	53
42	43	54
43	55	54
43	44	55
45	57	56
45	46	57
46	58	57
46	47	58
47	59	58
47	48	59
48	60	59
48	49	60
49	61	60
49	50	61
50	62	61
50	51	62
51	63	62
51	52	63
52	64	63
52	53	64
53	65	64
53	54	65
54	66	65
54	55	66
56	68	67
56	57	68
57	69	68
57	58	69
58	70	69
58	59	70
59	71	70
59	60	71
60	72	71
60	61	72
61	73	72
61	62	73
62	74	73
62	63	74
63	75	74
63	64	75
64	76	75
64	65	76
65	77	76
65	66	77
67	79	78
67	68	79
68	80	79
68	69	80
69	81	80
69	70	81
70	82	81
70	71	82
71	83	82
71	72	83
72	84	83
72	73	84
73	85	84
73	74	85
74	86	85
74	75	86
75	87	86
75	76	87
76	88	87
76	77	88
78	90	89
78	79	90
79	91	90
79	80	91
80	92	91
80	81	92
81	93	92
81	82	93
82	94	93
82	83	94
83	95	94
83	84	95
84	96	95
84	85	96
85	97	96
85	86	97
86	98	97
86	87	98
87	99	98
87	88	99
89	101	100
89	90	101
90	102	101
90	91	102
91	103	102
91	92	103
92	104	103
92	93	104
93	105	104
93	94	105
94	106	105
94	95	106
95	107	106
95	96	107
96	108	107
96	97	108
97	109	108
97	98	109
98	110	109
98	99	110
100	112	111
100	101	112
101	113	112
101	102	113
102	114	113
102	103	114
103	115	114
103	104	115
104	116	115
104	105	116
105	117	116
105	106	117
106	118	117
106	107	118
107	119	118
107	108	119
108	120	119
108	109	120
109	121	120
109	110	121
